/*--------------------------------*- C++ -*----------------------------------*\
| =========                 |                                                 |
| \\      /  F ield         | OpenFOAM: The Open Source CFD Toolbox           |
|  \\    /   O peration     | Version:  2512                                  |
|   \\  /    A nd           | Website:  www.openfoam.com                      |
|    \\/     M anipulation  |                                                 |
\*---------------------------------------------------------------------------*/
FoamFile
{
    version     2.0;
    format      ascii;
    arch        "LSB;label=32;scalar=64";
    class       volVectorField;
    location    "0";
    object      U;
}
// * * * * * * * * * * * * * * * * * * * * * * * * * * * * * * * * * * * * * //

dimensions      [0 1 -1 0 0 0 0];

internalField   nonuniform List<vector> 
15300
(
(-0.000399455 0 3.84581e-05)
(-0.000400952 0 -1.28703e-05)
(-0.000396187 0 -6.37745e-05)
(-0.000384894 0 -0.000113652)
(-0.000367285 0 -0.000161897)
(-0.000343599 0 -0.00020711)
(-0.000314633 0 -0.000249328)
(-0.00028013 0 -0.000287297)
(-0.000241426 0 -0.000320584)
(-0.000198549 0 -0.000348856)
(-0.00015248 0 -0.000371018)
(-0.000104159 0 -0.000387554)
(-5.38177e-05 0 -0.000397568)
(-2.88479e-06 0 -0.000401183)
(4.82595e-05 0 -0.000398078)
(9.86092e-05 0 -0.000388863)
(0.000147137 0 -0.000373146)
(0.000193586 0 -0.000351422)
(0.000236607 0 -0.000323813)
(0.000275956 0 -0.000291271)
(0.000310876 0 -0.000253639)
(0.00034038 0 -0.000212025)
(0.000364816 0 -0.000167062)
(0.000382914 0 -0.000119143)
(0.000395056 0 -6.96252e-05)
(0.000400685 0 -1.86586e-05)
(0.000399715 0 3.24551e-05)
(0.000392292 0 8.29816e-05)
(0.000378554 0 0.000132379)
(0.000358693 0 0.000179334)
(0.000333052 0 0.000223607)
(0.000301808 0 0.000264229)
(0.000265826 0 0.000300387)
(0.000225415 0 0.000331988)
(0.000181261 0 0.000357714)
(0.000134464 0 0.000378097)
(8.50648e-05 0 0.000392116)
(3.45738e-05 0 0.00039966)
(-1.66213e-05 0 0.00040092)
(-6.75687e-05 0 0.000395418)
(-0.000117212 0 0.000383713)
(-0.000165196 0 0.000365486)
(-0.000210403 0 0.000341636)
(-0.00025217 0 0.000312149)
(-0.000290018 0 0.000277449)
(-0.00032275 0 0.000238286)
(-0.000350698 0 0.000195386)
(-0.000372605 0 0.000148989)
(-0.00038858 0 0.000100495)
(-0.000398324 0 5.00569e-05)
(-0.000401199 0 -1.00323e-06)
(-0.000398009 0 -5.19982e-05)
(-0.000388015 0 -0.000102367)
(-0.000371874 0 -0.000150834)
(-0.000349436 0 -0.000196931)
(-0.000321648 0 -0.000239955)
(-0.000288543 0 -0.000278804)
(-0.000250676 0 -0.000313428)
(-0.000208677 0 -0.000342629)
(-0.000163523 0 -0.000366541)
(-0.00011536 0 -0.000384405)
(-6.55912e-05 0 -0.000395733)
(-1.46694e-05 0 -0.000401089)
(3.65551e-05 0 -0.000399452)
(8.69706e-05 0 -0.000391693)
(0.000136222 0 -0.00037736)
(0.000183077 0 -0.000356872)
(0.000226916 0 -0.000330646)
(0.000267284 0 -0.000299018)
(0.000303044 0 -0.000262675)
(0.000334111 0 -0.000222021)
(0.000359655 0 -0.000177595)
(0.000379259 0 -0.000130508)
(0.000392957 0 -8.10824e-05)
(0.000399798 0 -3.04539e-05)
(0.000400693 0 2.05634e-05)
(0.000394717 0 7.15452e-05)
(0.000382349 0 0.00012105)
(0.000363914 0 0.000168797)
(0.000339334 0 0.000213729)
(0.00030953 0 0.000255083)
(0.000274343 0 0.00029241)
(0.000235032 0 0.000325025)
(0.000191834 0 0.000352312)
(0.000145321 0 0.00037399)
(9.66481e-05 0 0.000389241)
(4.63512e-05 0 0.000398652)
(-4.86846e-06 0 0.000401151)
(-5.57621e-05 0 0.000397374)
(-0.000106069 0 0.000387103)
(-0.000154332 0 0.000370251)
(-0.000200221 0 0.000347822)
(-0.000242937 0 0.000319346)
(-0.000281553 0 0.000285916)
(-0.000315576 0 0.000247572)
(-0.000344718 0 0.000205453)
(-0.000367972 0 0.000160012)
(-0.000385504 0 0.00011178)
(-0.000396442 0 6.17998e-05)
(-0.000401285 0 1.09203e-05)
(-0.000399384 0 -4.0438e-05)
(-0.000390824 0 -9.07797e-05)
(-0.000376298 0 -0.000139904)
(-0.000355187 0 -0.000186636)
(-0.000328721 0 -0.000230278)
(-0.000296619 0 -0.000270327)
(-0.000259739 0 -0.000305801)
(-0.000218708 0 -0.000336286)
(-0.000174011 0 -0.000361492)
(-0.000126714 0 -0.000380628)
(-7.72345e-05 0 -0.00039377)
(-2.63846e-05 0 -0.000400357)
(2.46494e-05 0 -0.000400431)
(7.55761e-05 0 -0.000394147)
(0.000124982 0 -0.000381063)
(0.000172466 0 -0.000362335)
(0.000217279 0 -0.000337272)
(0.000258273 0 -0.000306869)
(0.000295313 0 -0.000271539)
(0.000327396 0 -0.000231611)
(0.000354168 0 -0.000188234)
(0.000375158 0 -0.000141433)
(0.000390214 0 -9.26314e-05)
(0.00039886 0 -4.2289e-05)
(0.00040106 0 8.96244e-06)
(0.0003965 0 5.97491e-05)
(0.000385929 0 0.000109791)
(0.000368627 0 0.000158037)
(0.000345661 0 0.000203575)
(0.000316925 0 0.000246092)
(0.000282901 0 0.000284202)
(0.00024464 0 0.00031799)
(0.00020201 0 0.00034654)
(0.000156381 0 0.000369411)
(0.000107966 0 0.000386167)
(5.79344e-05 0 0.000396979)
(7.08426e-06 0 0.000401086)
(-4.41608e-05 0 0.000398847)
(-9.45023e-05 0 0.000389852)
(-0.000143351 0 0.000374886)
(-0.000190064 0 0.000353511)
(-0.000233304 0 0.000326369)
(-0.000273144 0 0.000294181)
(-0.000308258 0 0.000256821)
(-0.000338477 0 0.00021569)
(-0.000363223 0 0.000170719)
(-0.000381917 0 0.000123076)
(-0.000394413 0 7.34969e-05)
(-0.000400627 0 2.2546e-05)
(-0.000400235 0 -2.84911e-05)
(-0.000393462 0 -7.92624e-05)
(-0.000380103 0 -0.000128793)
(-0.000360648 0 -0.000176001)
(-0.000335352 0 -0.000220679)
(-0.000304346 0 -0.000261349)
(-0.000268855 0 -0.000298079)
(-0.000228526 0 -0.000329912)
(-0.00018472 0 -0.000356166)
(-0.000137873 0 -0.000376873)
(-8.8674e-05 0 -0.000391234)
(-3.83226e-05 0 -0.00039936)
(1.29753e-05 0 -0.000400825)
(6.38474e-05 0 -0.000396036)
(0.000113685 0 -0.00038473)
(0.000161885 0 -0.000367119)
(0.000207058 0 -0.00034344)
(0.000249239 0 -0.000314491)
(0.000287176 0 -0.000280015)
(0.000320437 0 -0.000241346)
(0.000348693 0 -0.00019851)
(0.000370851 0 -0.000152482)
(0.000387393 0 -0.000104202)
(0.000397424 0 -5.38995e-05)
(0.000401062 0 -2.9962e-06)
(0.000398003 0 4.80311e-05)
(0.000388814 0 9.84572e-05)
(0.000373138 0 0.000146974)
(0.000351456 0 0.000193424)
(0.000323885 0 0.000236461)
(0.000291377 0 0.000275834)
(0.000253772 0 0.000310785)
(0.000212176 0 0.000340326)
(0.000167224 0 0.000364801)
(0.000119303 0 0.00038294)
(6.97698e-05 0 0.000395122)
(1.87835e-05 0 0.000400786)
(-3.2358e-05 0 0.000399844)
(-8.29215e-05 0 0.000392442)
(-0.000132362 0 0.000378713)
(-0.000179357 0 0.000358852)
(-0.00022367 0 0.0003332)
(-0.000264329 0 0.000301934)
(-0.000300515 0 0.000265925)
(-0.000332139 0 0.000225477)
(-0.000357877 0 0.000181283)
(-0.000378261 0 0.000134445)
(-0.000392271 0 8.50039e-05)
(-0.000399794 0 3.44764e-05)
(-0.000401026 0 -1.67488e-05)
(-0.000395489 0 -6.77202e-05)
(-0.000383742 0 -0.000117382)
(-0.000365473 0 -0.000165367)
(-0.000341582 0 -0.000210564)
(-0.000312055 0 -0.000252314)
(-0.000277321 0 -0.000290135)
(-0.000238134 0 -0.000322831)
(-0.000195218 0 -0.000350739)
(-0.000148819 0 -0.000372603)
(-0.000100332 0 -0.000388535)
(-4.99094e-05 0 -0.00039824)
(1.12423e-06 0 -0.000401082)
(5.20834e-05 0 -0.000397867)
(0.000102414 0 -0.000387856)
(0.000150842 0 -0.000371709)
(0.000196896 0 -0.000349276)
(0.000239883 0 -0.000321502)
(0.000278697 0 -0.000288421)
(0.000313294 0 -0.000250589)
(0.000342477 0 -0.000208627)
(0.000366383 0 -0.000163514)
(0.00038425 0 -0.000115392)
(0.000395592 0 -6.56619e-05)
(0.000400971 0 -1.47754e-05)
(0.000399365 0 3.64205e-05)
(0.000391644 0 8.68183e-05)
(0.00037735 0 0.000136066)
(0.000356902 0 0.000182922)
(0.000330716 0 0.000226771)
(0.000299124 0 0.000267162)
(0.000262808 0 0.000302953)
(0.000222175 0 0.000334055)
(0.000177759 0 0.00035964)
(0.000130674 0 0.000379285)
(8.1238e-05 0 0.000393023)
(3.05879e-05 0 0.0003999)
(-2.04579e-05 0 0.000400826)
(-7.14733e-05 0 0.000394873)
(-0.000121019 0 0.000382517)
(-0.00016881 0 0.000364084)
(-0.000213783 0 0.000339496)
(-0.000255177 0 0.000309673)
(-0.000292536 0 0.000274459)
(-0.000325173 0 0.000235116)
(-0.000352475 0 0.000191876)
(-0.000374158 0 0.000145321)
(-0.000389403 0 9.66066e-05)
(-0.000398797 0 4.62701e-05)
(-0.00040127 0 -4.9812e-06)
(-0.00039746 0 -5.58984e-05)
(-0.000387149 0 -0.000106223)
(-0.000370254 0 -0.000154495)
(-0.000347784 0 -0.000200378)
(-0.000319269 0 -0.000243078)
(-0.000285805 0 -0.000281669)
(-0.000247434 0 -0.000315658)
(-0.000205299 0 -0.000344762)
(-0.00015985 0 -0.000367975)
(-0.000111626 0 -0.000385464)
(-6.16601e-05 0 -0.000396363)
(-1.08017e-05 0 -0.000401172)
(4.05199e-05 0 -0.000399244)
(9.08247e-05 0 -0.000390666)
(0.00013991 0 -0.000376132)
(0.000186598 0 -0.000355025)
(0.000230201 0 -0.000328573)
(0.000270215 0 -0.000296492)
(0.000305661 0 -0.000259644)
(0.000336126 0 -0.000218652)
(0.000361324 0 -0.000173994)
(0.000380461 0 -0.00012674)
(0.000393614 0 -7.73015e-05)
(0.000400222 0 -2.64871e-05)
(0.000400326 0 2.45145e-05)
(0.000394079 0 7.54201e-05)
(0.000381034 0 0.000124819)
(0.000362347 0 0.000172301)
(0.000337326 0 0.000217122)
(0.00030696 0 0.000258135)
(0.000271659 0 0.000295204)
(0.000231755 0 0.000327321)
(0.000188392 0 0.000354132)
(0.000141593 0 0.000375164)
(9.27874e-05 0 0.000390259)
(4.24253e-05 0 0.000398943)
(-8.85453e-06 0 0.000401176)
(-5.96704e-05 0 0.00039664)
(-0.000109752 0 0.000386084)
(-0.000158039 0 0.000368787)
(-0.00020362 0 0.000345815)
(-0.000246174 0 0.000317063)
(-0.000284319 0 0.000283012)
(-0.000318132 0 0.000244719)
(-0.000346697 0 0.000202054)
(-0.000369576 0 0.000156379)
(-0.000386327 0 0.000107924)
(-0.000397123 0 5.78531e-05)
(-0.000401207 0 6.96797e-06)
(-0.000398935 0 -4.43013e-05)
(-0.000389902 0 -9.4661e-05)
(-0.000374893 0 -0.000143521)
(-0.000693246 0 6.67398e-05)
(-0.000695843 0 -2.2335e-05)
(-0.000687575 0 -0.000110674)
(-0.00066798 0 -0.000197232)
(-0.000637423 0 -0.000280957)
(-0.000596322 0 -0.000359422)
(-0.000546058 0 -0.000432691)
(-0.000486186 0 -0.000498587)
(-0.00041902 0 -0.000556362)
(-0.000344613 0 -0.000605432)
(-0.000264665 0 -0.000643902)
(-0.000180806 0 -0.000672609)
(-9.34385e-05 0 -0.000689998)
(-5.04219e-06 0 -0.00069628)
(8.37234e-05 0 -0.000690901)
(0.000171112 0 -0.000674916)
(0.000255341 0 -0.000647646)
(0.000335964 0 -0.000609948)
(0.000410638 0 -0.000562034)
(0.00047894 0 -0.000505557)
(0.000539555 0 -0.000440243)
(0.00059077 0 -0.000368016)
(0.000633188 0 -0.000289974)
(0.000664604 0 -0.000206801)
(0.000685682 0 -0.000120851)
(0.000695453 0 -3.23859e-05)
(0.000693769 0 5.63345e-05)
(0.000680884 0 0.000144036)
(0.000657035 0 0.000229777)
(0.000622558 0 0.000311276)
(0.000578049 0 0.000388119)
(0.000523813 0 0.000458623)
(0.000461355 0 0.000521378)
(0.00039121 0 0.000576222)
(0.000314569 0 0.000620868)
(0.000233345 0 0.000656237)
(0.000147603 0 0.00068056)
(5.99697e-05 0 0.000693644)
(-2.88836e-05 0 0.000695822)
(-0.000117305 0 0.000686264)
(-0.000203461 0 0.000665941)
(-0.000286733 0 0.0006343)
(-0.000365185 0 0.000592902)
(-0.000437667 0 0.000541721)
(-0.000503345 0 0.000481496)
(-0.000560145 0 0.000413527)
(-0.000608642 0 0.000339075)
(-0.000646657 0 0.000258556)
(-0.000674377 0 0.000174398)
(-0.000691284 0 8.68685e-05)
(-0.000696273 0 -1.74072e-06)
(-0.000690738 0 -9.02368e-05)
(-0.000673395 0 -0.000177646)
(-0.000645388 0 -0.000261758)
(-0.000606453 0 -0.000341756)
(-0.000558233 0 -0.000416424)
(-0.000500785 0 -0.000483847)
(-0.000435074 0 -0.000543941)
(-0.000362191 0 -0.000594624)
(-0.000283831 0 -0.000636131)
(-0.000200246 0 -0.000667142)
(-0.000113873 0 -0.000686811)
(-2.5496e-05 0 -0.000696116)
(6.34083e-05 0 -0.000693283)
(0.000150911 0 -0.000679827)
(0.000236396 0 -0.000654958)
(0.000317722 0 -0.000619405)
(0.000393815 0 -0.000573892)
(0.000463887 0 -0.000519003)
(0.000525959 0 -0.000455927)
(0.000579888 0 -0.000385366)
(0.000624229 0 -0.000308257)
(0.00065826 0 -0.000226528)
(0.000682038 0 -0.000140738)
(0.000693912 0 -5.28603e-05)
(0.000695467 0 3.56929e-05)
(0.000685093 0 0.000124184)
(0.000663623 0 0.000210111)
(0.000631622 0 0.000292986)
(0.000588953 0 0.000370975)
(0.000537217 0 0.00044275)
(0.00047614 0 0.000507535)
(0.000407904 0 0.000564139)
(0.000332921 0 0.000611492)
(0.000252189 0 0.00064911)
(0.000167708 0 0.000675573)
(8.04108e-05 0 0.000691897)
(-8.48557e-06 0 0.000696226)
(-9.68138e-05 0 0.000689661)
(-0.000184121 0 0.000671826)
(-0.000267879 0 0.000642571)
(-0.000347516 0 0.000603638)
(-0.000421645 0 0.000554212)
(-0.000488656 0 0.000496192)
(-0.000547696 0 0.000429643)
(-0.000598266 0 0.000356547)
(-0.000638617 0 0.000277686)
(-0.000669039 0 0.000193983)
(-0.000688019 0 0.000107247)
(-0.000696423 0 1.89514e-05)
(-0.000693124 0 -7.01753e-05)
(-0.00067827 0 -0.000157538)
(-0.000653065 0 -0.00024279)
(-0.000616431 0 -0.00032389)
(-0.000570507 0 -0.000399629)
(-0.0005148 0 -0.000469134)
(-0.000450802 0 -0.000530703)
(-0.000379598 0 -0.000583615)
(-0.000302031 0 -0.000627366)
(-0.00021995 0 -0.000660586)
(-0.00013408 0 -0.000683401)
(-4.58285e-05 0 -0.000694842)
(4.27447e-05 0 -0.00069498)
(0.000131134 0 -0.000684083)
(0.000216886 0 -0.000661383)
(0.000299303 0 -0.000628885)
(0.000377087 0 -0.000585391)
(0.000448245 0 -0.000532627)
(0.000512539 0 -0.00047131)
(0.00056823 0 -0.000402011)
(0.000614704 0 -0.000326723)
(0.000651139 0 -0.000245491)
(0.000677275 0 -0.000160784)
(0.000692284 0 -7.34031e-05)
(0.000696103 0 1.55564e-05)
(0.000688187 0 0.000103709)
(0.000669836 0 0.000190569)
(0.000639803 0 0.000274309)
(0.000599935 0 0.000353351)
(0.000550054 0 0.000427144)
(0.000490994 0 0.000493289)
(0.000424581 0 0.000551928)
(0.000350584 0 0.000601475)
(0.000271384 0 0.000641164)
(0.000187352 0 0.000670238)
(0.000100515 0 0.000688994)
(1.22591e-05 0 0.000696114)
(-7.66795e-05 0 0.000692218)
(-0.000164048 0 0.000676598)
(-0.000248822 0 0.000650617)
(-0.000329889 0 0.000613512)
(-0.000404927 0 0.000566402)
(-0.000474063 0 0.000510534)
(-0.000534997 0 0.000445695)
(-0.000587435 0 0.000374311)
(-0.000630376 0 0.000296266)
(-0.000662814 0 0.000213586)
(-0.000684498 0 0.000127546)
(-0.00069528 0 3.91257e-05)
(-0.000694599 0 -4.94434e-05)
(-0.000682847 0 -0.000137552)
(-0.000659665 0 -0.000223507)
(-0.000625907 0 -0.000305433)
(-0.000582012 0 -0.000382971)
(-0.000528208 0 -0.000453554)
(-0.000466619 0 -0.000517301)
(-0.000396634 0 -0.000572551)
(-0.000320614 0 -0.000618122)
(-0.000239315 0 -0.000654067)
(-0.000153932 0 -0.000678998)
(-6.65462e-05 0 -0.00069311)
(2.24842e-05 0 -0.000695662)
(0.000110778 0 -0.00068736)
(0.000197278 0 -0.000667746)
(0.00028094 0 -0.000637186)
(0.000359347 0 -0.000596096)
(0.000432565 0 -0.000545855)
(0.000498415 0 -0.000486021)
(0.000556152 0 -0.000418907)
(0.0006052 0 -0.000344559)
(0.000643665 0 -0.000264667)
(0.00067238 0 -0.000180866)
(0.000689792 0 -9.35551e-05)
(0.000696108 0 -5.19968e-06)
(0.000690797 0 8.33708e-05)
(0.000674845 0 0.000170897)
(0.000647633 0 0.00025511)
(0.000609997 0 0.000335733)
(0.000562136 0 0.00041043)
(0.000505708 0 0.000478766)
(0.000440433 0 0.000539425)
(0.00036823 0 0.000590693)
(0.000290205 0 0.000633166)
(0.000207029 0 0.000664641)
(0.000121056 0 0.000685776)
(3.25638e-05 0 0.000695597)
(-5.61956e-05 0 0.000693953)
(-0.00014395 0 0.000681097)
(-0.000229752 0 0.000657262)
(-0.000311309 0 0.000622785)
(-0.000388209 0 0.00057826)
(-0.000458768 0 0.000523994)
(-0.000521562 0 0.000461497)
(-0.000576438 0 0.000391299)
(-0.000621101 0 0.000314601)
(-0.000656472 0 0.000233317)
(-0.000680781 0 0.000147516)
(-0.000693837 0 5.9831e-05)
(-0.000695974 0 -2.90646e-05)
(-0.000686366 0 -0.00011752)
(-0.000665983 0 -0.000203703)
(-0.000634281 0 -0.000286978)
(-0.000592824 0 -0.000365416)
(-0.000541587 0 -0.000437873)
(-0.000481313 0 -0.000503512)
(-0.000413312 0 -0.00056026)
(-0.000338836 0 -0.000608702)
(-0.000258315 0 -0.000646653)
(-0.000174166 0 -0.000674313)
(-8.66585e-05 0 -0.000691165)
(1.91292e-06 0 -0.000696107)
(9.03573e-05 0 -0.000690535)
(0.000177712 0 -0.000673169)
(0.000261768 0 -0.000645153)
(0.000341705 0 -0.000606225)
(0.000416321 0 -0.000558025)
(0.000483695 0 -0.000500612)
(0.000543749 0 -0.00043495)
(0.000594408 0 -0.00036212)
(0.000635905 0 -0.000283818)
(0.000666921 0 -0.000200292)
(0.00068661 0 -0.000113974)
(0.000695947 0 -2.5648e-05)
(0.000693159 0 6.32151e-05)
(0.000679756 0 0.000150693)
(0.000654943 0 0.000236172)
(0.000619449 0 0.000317501)
(0.000573993 0 0.000393608)
(0.000519153 0 0.000463712)
(0.000456116 0 0.000525829)
(0.000385586 0 0.000579807)
(0.00030849 0 0.000624207)
(0.000226765 0 0.000658295)
(0.000140961 0 0.000682131)
(5.30513e-05 0 0.000694058)
(-3.55425e-05 0 0.000695655)
(-0.000124081 0 0.000685315)
(-0.000210066 0 0.000663863)
(-0.000293005 0 0.000631864)
(-0.000371051 0 0.000589184)
(-0.000442883 0 0.00053742)
(-0.000507713 0 0.000476304)
(-0.000564348 0 0.000408022)
(-0.000611725 0 0.000332981)
(-0.00064935 0 0.000252188)
(-0.000675803 0 0.000167648)
(-0.000692103 0 8.02944e-05)
(-0.000696395 0 -8.64654e-06)
(-0.000689783 0 -9.70076e-05)
(-0.000671892 0 -0.00018434)
(-0.000642575 0 -0.000268113)
(-0.000603584 0 -0.00034774)
(-0.000554103 0 -0.000421845)
(-0.000496032 0 -0.000488823)
(-0.000429447 0 -0.000547814)
(-0.000356326 0 -0.000598329)
(-0.000277454 0 -0.000638622)
(-0.000193763 0 -0.000668982)
(-0.000107048 0 -0.000687906)
(-1.8781e-05 0 -0.000696261)
(7.0292e-05 0 -0.000692924)
(0.000157603 0 -0.000678045)
(0.000242798 0 -0.000652828)
(0.000323836 0 -0.0006162)
(0.000399519 0 -0.000570295)
(0.000468977 0 -0.000514619)
(0.000530505 0 -0.000450667)
(0.000583386 0 -0.000379519)
(0.000627127 0 -0.000302007)
(0.000660347 0 -0.000219988)
(0.000683179 0 -0.000134175)
(0.000694652 0 -4.59746e-05)
(0.000694832 0 4.25514e-05)
(0.000683987 0 0.000130911)
(0.000661342 0 0.000216654)
(0.000628903 0 0.000299069)
(0.000585469 0 0.000376863)
(0.000532759 0 0.000448047)
(0.000471481 0 0.000512385)
(0.000402217 0 0.000568123)
(0.000326948 0 0.000614652)
(0.000245718 0 0.000651148)
(0.000161008 0 0.00067734)
(7.35982e-05 0 0.000692403)
(-1.54025e-05 0 0.000696268)
(-0.000103596 0 0.000688387)
(-0.000190512 0 0.000670058)
(-0.000274313 0 0.000640031)
(-0.000353413 0 0.000600155)
(-0.000427261 0 0.000550251)
(-0.000493455 0 0.000491153)
(-0.000552131 0 0.000424694)
(-0.000601698 0 0.000350648)
(-0.000641399 0 0.000271382)
(-0.000670466 0 0.000187293)
(-0.0006892 0 0.000100399)
(-0.000696286 0 1.20935e-05)
(-0.000692344 0 -7.68787e-05)
(-0.00067667 0 -0.000164273)
(-0.000650626 0 -0.000249065)
(-0.00134451 0 0.000129414)
(-0.00134954 0 -4.33096e-05)
(-0.00133352 0 -0.000214606)
(-0.00129553 0 -0.000382454)
(-0.0012363 0 -0.000544815)
(-0.00115662 0 -0.000696984)
(-0.00105918 0 -0.000839089)
(-0.000943105 0 -0.000966909)
(-0.00081288 0 -0.00107899)
(-0.000668603 0 -0.0011742)
(-0.000513568 0 -0.00124886)
(-0.000350937 0 -0.0013046)
(-0.000181487 0 -0.00133839)
(-1.00246e-05 0 -0.00135063)
(0.00016217 0 -0.00134026)
(0.000331708 0 -0.00130931)
(0.000495131 0 -0.00125646)
(0.000651571 0 -0.00118338)
(0.000796479 0 -0.00109046)
(0.000929032 0 -0.000980918)
(0.00104668 0 -0.000854216)
(0.00114608 0 -0.000714092)
(0.00122841 0 -0.000562673)
(0.00128939 0 -0.000401287)
(0.00133031 0 -0.000234507)
(0.00134928 0 -6.28432e-05)
(0.00134601 0 0.000109318)
(0.001321 0 0.000279499)
(0.0012747 0 0.000445871)
(0.00120778 0 0.000604006)
(0.00112139 0 0.000753096)
(0.00101612 0 0.000889876)
(0.000894903 0 0.00101161)
(0.000758776 0 0.00111798)
(0.000610055 0 0.00120455)
(0.00045245 0 0.00127312)
(0.000286097 0 0.00132025)
(0.000116087 0 0.00134557)
(-5.6273e-05 0 0.00134973)
(-0.000227779 0 0.00133113)
(-0.000394876 0 0.00129165)
(-0.000556367 0 0.00123023)
(-0.000708496 0 0.00114989)
(-0.000849037 0 0.00105059)
(-0.000976374 0 0.000933756)
(-0.00108649 0 0.000801922)
(-0.00118051 0 0.000657525)
(-0.0012542 0 0.000501375)
(-0.00130794 0 0.000338177)
(-0.00134071 0 0.000168446)
(-0.00135038 0 -3.37511e-06)
(-0.00133965 0 -0.000174977)
(-0.00130603 0 -0.000344474)
(-0.00125174 0 -0.000507583)
(-0.00117627 0 -0.000662724)
(-0.00108279 0 -0.000807539)
(-0.000971412 0 -0.000938315)
(-0.000844009 0 -0.00105489)
(-0.00070269 0 -0.00115323)
(-0.000550738 0 -0.00123378)
(-0.000388642 0 -0.00129398)
(-0.000221122 0 -0.00133219)
(-4.97021e-05 0 -0.0013503)
(0.000122758 0 -0.00134487)
(0.000292514 0 -0.00131883)
(0.000458371 0 -0.00127064)
(0.000616173 0 -0.00120172)
(0.000763832 0 -0.00111346)
(0.000899816 0 -0.001007)
(0.00102029 0 -0.000884645)
(0.00112496 0 -0.000747755)
(0.00121102 0 -0.000598149)
(0.00127708 0 -0.000439566)
(0.00132324 0 -0.0002731)
(0.00134629 0 -0.000102575)
(0.0013493 0 6.92616e-05)
(0.00132917 0 0.000240977)
(0.00128749 0 0.000407711)
(0.00122537 0 0.000568518)
(0.00114255 0 0.000719833)
(0.00104214 0 0.000859083)
(0.000923598 0 0.000984755)
(0.000791173 0 0.00109454)
(0.000645666 0 0.00118637)
(0.000489014 0 0.0012593)
(0.000325103 0 0.00131059)
(0.000155742 0 0.00134219)
(-1.6705e-05 0 0.00135053)
(-0.000188034 0 0.00133773)
(-0.000357368 0 0.00130308)
(-0.000519803 0 0.00124628)
(-0.000674234 0 0.00117072)
(-0.000817969 0 0.00107482)
(-0.000947896 0 0.000962263)
(-0.00106236 0 0.000833178)
(-0.00116039 0 0.000691409)
(-0.00123862 0 0.000538472)
(-0.00129759 0 0.000376156)
(-0.00133438 0 0.000207962)
(-0.00135067 0 3.67489e-05)
(-0.00134427 0 -0.000136075)
(-0.00131548 0 -0.000305481)
(-0.00126662 0 -0.000470799)
(-0.00119561 0 -0.000628075)
(-0.00110658 0 -0.000774965)
(-0.000998583 0 -0.000909777)
(-0.000874503 0 -0.00102921)
(-0.000736441 0 -0.00113187)
(-0.000586031 0 -0.00121677)
(-0.000426855 0 -0.00128125)
(-0.000260315 0 -0.00132556)
(-8.91417e-05 0 -0.00134782)
(8.2672e-05 0 -0.00134815)
(0.000254144 0 -0.00132707)
(0.000420516 0 -0.00128309)
(0.000580431 0 -0.0012201)
(0.000731369 0 -0.00113576)
(0.000869459 0 -0.00103343)
(0.000994238 0 -0.000914486)
(0.00110233 0 -0.000780046)
(0.00119253 0 -0.000633976)
(0.00126325 0 -0.000476361)
(0.00131399 0 -0.000311997)
(0.00134312 0 -0.000142438)
(0.00135054 0 3.01868e-05)
(0.00133517 0 0.000201245)
(0.00129955 0 0.000369791)
(0.00124125 0 0.000532278)
(0.00116387 0 0.000685638)
(0.00106705 0 0.000828805)
(0.000952424 0 0.00095712)
(0.000823535 0 0.00107086)
(0.00067994 0 0.00116695)
(0.000526259 0 0.0012439)
(0.000363215 0 0.00130025)
(0.000194742 0 0.00133657)
(2.35349e-05 0 0.00135032)
(-0.000148982 0 0.0013427)
(-0.000318437 0 0.00131235)
(-0.000482847 0 0.0012619)
(-0.000640053 0 0.00118988)
(-0.000785554 0 0.00109847)
(-0.000919603 0 0.000990083)
(-0.00103774 0 0.000864311)
(-0.0011394 0 0.00072586)
(-0.00122264 0 0.000574502)
(-0.00128552 0 0.000414166)
(-0.00132755 0 0.000247321)
(-0.00134845 0 7.58668e-05)
(-0.00134713 0 -9.58759e-05)
(-0.00132435 0 -0.000266727)
(-0.00127942 0 -0.000433407)
(-0.00121398 0 -0.000592283)
(-0.00112888 0 -0.000742657)
(-0.00102458 0 -0.000879557)
(-0.000905169 0 -0.00100321)
(-0.000769474 0 -0.0011104)
(-0.000622065 0 -0.00119883)
(-0.000464408 0 -0.0012686)
(-0.000298816 0 -0.00131701)
(-0.000129325 0 -0.00134444)
(4.33721e-05 0 -0.00134946)
(0.000214656 0 -0.00133341)
(0.000382476 0 -0.00129542)
(0.000544802 0 -0.00123619)
(0.000696947 0 -0.00115652)
(0.000839032 0 -0.00105908)
(0.00096683 0 -0.000943023)
(0.00107889 0 -0.000812825)
(0.00117409 0 -0.00066858)
(0.00124875 0 -0.000513569)
(0.00130449 0 -0.000350963)
(0.00133829 0 -0.00018154)
(0.00135055 0 -1.00881e-05)
(0.00134024 0 0.000161782)
(0.00130927 0 0.000331623)
(0.00125645 0 0.000495028)
(0.0011834 0 0.00065146)
(0.0010905 0 0.000796382)
(0.000980982 0 0.000928952)
(0.0008543 0 0.00104661)
(0.000714184 0 0.00114604)
(0.000562779 0 0.0012284)
(0.000401393 0 0.00128941)
(0.000234594 0 0.00133035)
(6.29229e-05 0 0.00134934)
(-0.00010925 0 0.00134609)
(-0.000279458 0 0.00132109)
(-0.000445864 0 0.0012748)
(-0.000604024 0 0.00120788)
(-0.00075314 0 0.00112148)
(-0.000889949 0 0.0010162)
(-0.00101169 0 0.000894965)
(-0.00111808 0 0.000758812)
(-0.00120466 0 0.000610064)
(-0.00127323 0 0.000452432)
(-0.00132035 0 0.000286051)
(-0.00134566 0 0.00011602)
(-0.0013498 0 -5.63561e-05)
(-0.00133118 0 -0.000227879)
(-0.00129167 0 -0.000395)
(-0.00123021 0 -0.00055649)
(-0.00114985 0 -0.000708608)
(-0.00105052 0 -0.000849139)
(-0.000933663 0 -0.000976461)
(-0.000801816 0 -0.00108655)
(-0.000657405 0 -0.00118054)
(-0.00050126 0 -0.0012542)
(-0.000338066 0 -0.00130791)
(-0.000168342 0 -0.00134066)
(3.46115e-06 0 -0.0013503)
(0.000175033 0 -0.00133956)
(0.000344508 0 -0.00130593)
(0.000507597 0 -0.00125163)
(0.000662707 0 -0.00117616)
(0.000807501 0 -0.00108269)
(0.000938255 0 -0.000971327)
(0.00105481 0 -0.000843952)
(0.00115313 0 -0.000702655)
(0.00123368 0 -0.000550731)
(0.00129389 0 -0.000388662)
(0.00133211 0 -0.000221167)
(0.00135023 0 -4.97727e-05)
(0.00134482 0 0.000122665)
(0.0013188 0 0.000292411)
(0.00127064 0 0.000458277)
(0.00120174 0 0.000616079)
(0.00111351 0 0.00076374)
(0.00100707 0 0.000899743)
(0.000884732 0 0.00102024)
(0.000747861 0 0.00112492)
(0.000598256 0 0.00121102)
(0.000439683 0 0.0012771)
(0.000273208 0 0.00132328)
(0.000102666 0 0.00134636)
(-6.91898e-05 0 0.0013494)
(-0.000240922 0 0.00132928)
(-0.000407686 0 0.00128761)
(-0.000568528 0 0.00122549)
(-0.000719869 0 0.00114267)
(-0.000859149 0 0.00104224)
(-0.000984842 0 0.00092368)
(-0.00109464 0 0.000791239)
(-0.00118648 0 0.000645701)
(-0.00125942 0 0.000489021)
(-0.0013107 0 0.000325082)
(-0.00134229 0 0.000155693)
(-0.00135061 0 -1.67706e-05)
(-0.0013378 0 -0.00018811)
(-0.00130312 0 -0.00035746)
(-0.00124629 0 -0.000519912)
(-0.0011707 0 -0.000674333)
(-0.00107477 0 -0.000818057)
(-0.000962193 0 -0.00094797)
(-0.000833093 0 -0.00106241)
(-0.000691312 0 -0.00116042)
(-0.000538367 0 -0.00123862)
(-0.000376063 0 -0.00129756)
(-0.00020788 0 -0.00133432)
(-3.66717e-05 0 -0.00135059)
(0.000136117 0 -0.00134418)
(0.000305501 0 -0.00131538)
(0.000470798 0 -0.00126651)
(0.00062804 0 -0.0011955)
(0.000774906 0 -0.00110648)
(0.000909699 0 -0.000998497)
(0.00102911 0 -0.00087444)
(0.00113175 0 -0.000736411)
(0.00121665 0 -0.000586019)
(0.00128114 0 -0.000426876)
(0.00132545 0 -0.000260363)
(0.00134772 0 -8.92119e-05)
(0.00134807 0 8.25718e-05)
(0.00132702 0 0.00025403)
(0.00128306 0 0.000420408)
(0.0012201 0 0.000580323)
(0.00113579 0 0.00073126)
(0.00103349 0 0.000869359)
(0.000914558 0 0.000994164)
(0.000780139 0 0.00110227)
(0.000634078 0 0.0011925)
(0.000476462 0 0.00126326)
(0.000312107 0 0.00131401)
(0.000142528 0 0.00134317)
(-3.01208e-05 0 0.00135061)
(-0.000201187 0 0.00133526)
(-0.000369762 0 0.00129965)
(-0.000532278 0 0.00124135)
(-0.000685667 0 0.00116396)
(-0.000828857 0 0.00106714)
(-0.000957199 0 0.00095249)
(-0.00107096 0 0.000823581)
(-0.00116705 0 0.000679972)
(-0.00124401 0 0.00052625)
(-0.00130035 0 0.000363184)
(-0.00133667 0 0.000194685)
(-0.0013504 0 2.3453e-05)
(-0.00134276 0 -0.000149072)
(-0.00131238 0 -0.000318539)
(-0.0012619 0 -0.000482967)
(-0.00252912 0 0.000243405)
(-0.00253859 0 -8.14581e-05)
(-0.00250845 0 -0.000403638)
(-0.00243703 0 -0.000719336)
(-0.00232565 0 -0.00102472)
(-0.00217582 0 -0.00131095)
(-0.00199258 0 -0.00157827)
(-0.00177429 0 -0.00181873)
(-0.00152938 0 -0.0020296)
(-0.00125803 0 -0.00220876)
(-0.000966424 0 -0.00234928)
(-0.000660514 0 -0.0024542)
(-0.000341756 0 -0.00251785)
(-1.91923e-05 0 -0.00254097)
(0.000304771 0 -0.00252154)
(0.000623757 0 -0.0024634)
(0.000931259 0 -0.00236404)
(0.00122564 0 -0.00222659)
(0.00149833 0 -0.00205182)
(0.00174779 0 -0.00184575)
(0.0019692 0 -0.00160738)
(0.00215629 0 -0.00134373)
(0.00231126 0 -0.00105882)
(0.00242604 0 -0.000755137)
(0.00250305 0 -0.000441296)
(0.00253875 0 -0.000118258)
(0.0025326 0 0.000205716)
(0.00248552 0 0.000525963)
(0.00239838 0 0.000839036)
(0.00227242 0 0.0011366)
(0.00210982 0 0.00141713)
(0.0019117 0 0.00167447)
(0.00168356 0 0.00190349)
(0.00142738 0 0.00210359)
(0.00114751 0 0.00226642)
(0.000850945 0 0.00239536)
(0.000537936 0 0.00248395)
(0.000218068 0 0.00253151)
(-0.000106201 0 0.00253925)
(-0.000428841 0 0.00250417)
(-0.000743167 0 0.00242983)
(-0.00104693 0 0.0023142)
(-0.00133306 0 0.00216301)
(-0.00159738 0 0.00197616)
(-0.00183686 0 0.00175636)
(-0.00204394 0 0.00150835)
(-0.00222074 0 0.00123673)
(-0.00235931 0 0.000943016)
(-0.00246035 0 0.000636057)
(-0.00252198 0 0.000316818)
(-0.00254016 0 -6.34778e-06)
(-0.00251999 0 -0.000329101)
(-0.00245678 0 -0.000647901)
(-0.00235469 0 -0.000954694)
(-0.00221276 0 -0.00124651)
(-0.00203697 0 -0.00151892)
(-0.00182753 0 -0.00176494)
(-0.00158793 0 -0.00198427)
(-0.00132214 0 -0.00216929)
(-0.00103634 0 -0.00232089)
(-0.000731441 0 -0.00243421)
(-0.000416319 0 -0.00250617)
(-9.38399e-05 0 -0.00254033)
(0.000230618 0 -0.00253019)
(0.00055001 0 -0.00248128)
(0.000862085 0 -0.0023907)
(0.00115903 0 -0.00226108)
(0.00143689 0 -0.00209509)
(0.00169281 0 -0.00189482)
(0.00191954 0 -0.00166463)
(0.00211653 0 -0.00140708)
(0.00227852 0 -0.00112557)
(0.00240286 0 -0.00082717)
(0.00248974 0 -0.00051392)
(0.00253312 0 -0.000193027)
(0.0025388 0 0.000130337)
(0.0025009 0 0.000453471)
(0.00242245 0 0.000767226)
(0.00230553 0 0.00106982)
(0.00214965 0 0.00135454)
(0.00196066 0 0.00161654)
(0.00173757 0 0.00185297)
(0.00148835 0 0.0020595)
(0.00121453 0 0.00223223)
(0.000919747 0 0.00236938)
(0.000611328 0 0.00246579)
(0.000292676 0 0.00252517)
(-3.17613e-05 0 0.00254077)
(-0.000354075 0 0.00251661)
(-0.000672612 0 0.00245134)
(-0.000978152 0 0.00234442)
(-0.00126862 0 0.00220221)
(-0.00153895 0 0.00202176)
(-0.0017833 0 0.00180999)
(-0.00199856 0 0.00156715)
(-0.00218291 0 0.00130047)
(-0.00233001 0 0.00101279)
(-0.0024409 0 0.000707491)
(-0.00251007 0 0.000391142)
(-0.00254071 0 6.91191e-05)
(-0.00252868 0 -0.000255933)
(-0.00247454 0 -0.00057456)
(-0.00238267 0 -0.000885505)
(-0.00224913 0 -0.00118133)
(-0.00208172 0 -0.00145764)
(-0.00187862 0 -0.00171125)
(-0.00164528 0 -0.00193594)
(-0.00138562 0 -0.0021291)
(-0.00110272 0 -0.00228887)
(-0.00080332 0 -0.00241024)
(-0.000490047 0 -0.00249368)
(-0.000168037 0 -0.00253563)
(0.0001552 0 -0.00253634)
(0.000477816 0 -0.00249677)
(0.000790857 0 -0.0024141)
(0.00109177 0 -0.00229565)
(0.0013758 0 -0.00213703)
(0.00163568 0 -0.00194453)
(0.00187051 0 -0.00172077)
(0.00207394 0 -0.00146783)
(0.00224372 0 -0.00119299)
(0.00237684 0 -0.000896408)
(0.00247233 0 -0.000587116)
(0.00252717 0 -0.000268041)
(0.00254112 0 5.68057e-05)
(0.0025122 0 0.000378704)